 Gaussian 03, Revision C.02,
 Gaussian 03:  AM64L-G03RevC.02 12-Jun-2004

 -----------------------
 # G3MP2 geom=checkpoint
 -----------------------

 leucine 1b1
 -----------
 Redundant internal coordinates taken from checkpoint file:
 leucine-1b1-G3MP2.chk
 Charge =  1 Multiplicity = 2

 SCF Done:  E(UHF) =  -438.651133941     A.U. after   21 cycles
 SCF Done:  E(UHF) =  -438.673030324     A.U. after   17 cycles
 SCF Done:  E(UHF) =  -438.688550803     A.U. after   17 cycles
 SCF Done:  E(UHF) =  -438.690452057     A.U. after   17 cycles
 SCF Done:  E(UHF) =  -438.689369610     A.U. after   17 cycles
 SCF Done:  E(UHF) =  -438.691351344     A.U. after   17 cycles
 SCF Done:  E(UHF) =  -438.691468558     A.U. after   14 cycles
 SCF Done:  E(UHF) =  -438.691691406     A.U. after   14 cycles
 SCF Done:  E(UHF) =  -438.692060170     A.U. after   18 cycles
 SCF Done:  E(UHF) =  -438.692254585     A.U. after   18 cycles
 SCF Done:  E(UHF) =  -438.697289194     A.U. after    9 cycles
 Optimization completed.
    -- Stationary point found.
 Normal termination of Gaussian 03 at Sat Jun 26 15:51:19 2010.

 -------------------------------------------------------
 #N Geom=AllCheck Guess=Read SCRF=Check HF/6-31G(d) Freq
 -------------------------------------------------------

 leucine 1b1
 -----------
 Redundant internal coordinates taken from checkpoint file:
 leucine-1b1-G3MP2.chk
 Charge =  1 Multiplicity = 2

 SCF Done:  E(UHF) =  -438.697289194     A.U. after    1 cycles

  Exact polarizability:  77.572   1.287  66.071  -2.522  -2.445  58.829
 Approx polarizability:  61.298   1.349  62.200  -3.201  -4.131  55.789

                     1                      2                      3
                     A                      A                      A
 Frequencies --    42.7109                65.6524               113.2519
 Red. masses --     3.0904                 6.4359                 2.6685
 Frc consts  --     0.0033                 0.0163                 0.0202
 IR Inten    --     3.2221                 6.9891                 3.3987
 Raman Activ --     0.4609                 0.7146                 0.1473

                     4                      5                      6
                     A                      A                      A
 Frequencies --   143.2804               236.7631               250.0445
 Red. masses --     3.5909                 1.7350                 1.4859
 Frc consts  --     0.0434                 0.0573                 0.0547
 IR Inten    --     4.3026                 1.6894                 2.5449
 Raman Activ --     0.4217                 0.8930                 0.5038

                     7                      8                      9
                     A                      A                      A
 Frequencies --   271.3168               310.3046               337.4050
 Red. masses --     1.1983                 1.0684                 2.5164
 Frc consts  --     0.0520                 0.0606                 0.1688
 IR Inten    --     1.3218                 0.5507                 7.1335
 Raman Activ --     0.0851                 1.0068                 1.0728

                    10                     11                     12
                     A                      A                      A
 Frequencies --   354.0121               412.8733               454.0075
 Red. masses --     3.3170                 2.2880                 2.6355
 Frc consts  --     0.2449                 0.2298                 0.3201
 IR Inten    --    18.6386                 7.8928                13.5758
 Raman Activ --     0.1698                 0.1998                 1.8053

                    13                     14                     15
                     A                      A                      A
 Frequencies --   468.6372               549.6034               646.4496
 Red. masses --     2.0801                 3.9253                 1.3385
 Frc consts  --     0.2692                 0.6986                 0.3296
 IR Inten    --     6.8908                56.2186                97.0159
 Raman Activ --     1.6844                 0.9866                 3.2034

                    16                     17                     18
                     A                      A                      A
 Frequencies --   696.4724               782.5344               807.3975
 Red. masses --     2.8156                 2.6818                 1.4542
 Frc consts  --     0.8047                 0.9676                 0.5585
 IR Inten    --    44.3822                 9.7228               195.8981
 Raman Activ --     1.3672                 6.5690                 0.8926

                    19                     20                     21
                     A                      A                      A
 Frequencies --   853.8206               899.0534               938.8931
 Red. masses --     2.6434                 2.4491                 1.8377
 Frc consts  --     1.1354                 1.1664                 0.9545
 IR Inten    --    17.1969                 5.6251                23.3262
 Raman Activ --     3.2095                 5.8853                 3.1572

                    22                     23                     24
                     A                      A                      A
 Frequencies --  1011.1694              1034.4325              1042.9985
 Red. masses --     1.2502                 1.8830                 1.6686
 Frc consts  --     0.7531                 1.1872                 1.0695
 IR Inten    --     1.5673                 2.0340                 2.2603
 Raman Activ --     0.6625                 8.2339                 0.4284

                    25                     26                     27
                     A                      A                      A
 Frequencies --  1053.6824              1073.5931              1174.9108
 Red. masses --     1.6647                 3.9327                 1.7051
 Frc consts  --     1.0889                 2.6707                 1.3868
 IR Inten    --     3.0457                11.0718                 7.0977
 Raman Activ --     5.4268                 7.7217                 4.3105

                    28                     29                     30
                     A                      A                      A
 Frequencies --  1223.8907              1254.9203              1299.6028
 Red. masses --     1.8334                 1.7534                 1.6898
 Frc consts  --     1.6180                 1.6269                 1.6816
 IR Inten    --     7.0262                13.0037                 3.1394
 Raman Activ --    10.0378                 3.7105                 3.0799

                    31                     32                     33
                     A                      A                      A
 Frequencies --  1328.7293              1336.2775              1402.5021
 Red. masses --     2.0176                 1.4222                 1.2907
 Frc consts  --     2.0988                 1.4962                 1.4959
 IR Inten    --   180.1249                53.7974                 2.7171
 Raman Activ --     0.9424                 7.9741                 3.1567

                    34                     35                     36
                     A                      A                      A
 Frequencies --  1456.7927              1469.2904              1502.4399
 Red. masses --     1.2065                 1.4061                 1.3327
 Frc consts  --     1.5086                 1.7885                 1.7724
 IR Inten    --     8.3090                11.5506                10.9360
 Raman Activ --     6.6078                 5.6745                 8.2233

                    37                     38                     39
                     A                      A                      A
 Frequencies --  1533.5959              1564.2925              1582.8807
 Red. masses --     1.4454                 1.2774                 1.2586
 Frc consts  --     2.0030                 1.8417                 1.8579
 IR Inten    --    14.7739                 7.4738                15.5984
 Raman Activ --     4.1744                 1.5945                 2.8512

                    40                     41                     42
                     A                      A                      A
 Frequencies --  1591.8091              1622.7365              1630.4631
 Red. masses --     2.7525                 1.0742                 1.0567
 Frc consts  --     4.1092                 1.6666                 1.6551
 IR Inten    --   142.3716                 3.8802                 6.9606
 Raman Activ --     1.9945                 2.5068                28.6411

                    43                     44                     45
                     A                      A                      A
 Frequencies --  1639.1307              1649.2653              1655.2672
 Red. masses --     1.0505                 1.0661                 1.0448
 Frc consts  --     1.6630                 1.7085                 1.6866
 IR Inten    --     5.8063                 5.0945                13.6117
 Raman Activ --     3.8461                17.6648                 6.2453

                    46                     47                     48
                     A                      A                      A
 Frequencies --  1690.0190              2037.8610              3153.8087
 Red. masses --     1.1844                10.2360                 1.0842
 Frc consts  --     1.9931                25.0455                 6.3540
 IR Inten    --   144.9104               382.0360                45.0388
 Raman Activ --     1.4800                 5.0283                72.6165

                    49                     50                     51
                     A                      A                      A
 Frequencies --  3195.3321              3213.6227              3234.7317
 Red. masses --     1.0458                 1.0379                 1.0642
 Frc consts  --     6.2911                 6.3151                 6.5608
 IR Inten    --    46.5791                10.0850                 8.7786
 Raman Activ --    76.5818                89.5103                90.6502

                    52                     53                     54
                     A                      A                      A
 Frequencies --  3254.4371              3268.8039              3279.2120
 Red. masses --     1.0943                 1.0844                 1.1038
 Frc consts  --     6.8285                 6.8267                 6.9930
 IR Inten    --    33.0628                 7.7298                27.2294
 Raman Activ --    56.4819                33.0428                46.5368

                    55                     56                     57
                     A                      A                      A
 Frequencies --  3293.0460              3296.2811              3299.6082
 Red. masses --     1.1026                 1.1035                 1.1016
 Frc consts  --     7.0447                 7.0640                 7.0664
 IR Inten    --     1.0172                 9.2635                30.2497
 Raman Activ --     8.7675                55.1923               136.0414

                    58                     59                     60
                     A                      A                      A
 Frequencies --  3614.9746              3781.4010              3998.6413
 Red. masses --     1.0539                 1.1004                 1.0658
 Frc consts  --     8.1148                 9.2708                10.0401
 IR Inten    --   157.4414               188.5000               264.7861
 Raman Activ --    38.8406                22.0647                83.8289

 - Thermochemistry -
 -------------------
 Temperature   298.150 Kelvin.  Pressure   1.00000 Atm.
 Atom  1 has atomic number  6 and mass  12.00000

 Molecular mass:   131.09463 amu.
 Principal axes and moments of inertia in atomic units:
                           1         2         3
     EIGENVALUES --   620.931972159.271322330.17649
           X            0.99999   0.00504   0.00192
           Y           -0.00514   0.99858   0.05307
           Z           -0.00165  -0.05307   0.99859
 This molecule is an asymmetric top.
 Rotational symmetry number  1.
 Warning -- assumption of classical behavior for rotation
           may cause significant error
 Rotational temperatures (Kelvin)      0.13949     0.04011     0.03717
 Rotational constants (GHZ):           2.90650     0.83581     0.77451
 Zero-point vibrational energy     540598.1 (Joules/Mol)
                                  129.20604 (Kcal/Mol)
 Warning -- explicit consideration of  14 degrees of freedom as
           vibrations may cause significant error
 Vibrational temperatures:     61.45    94.46   162.94   206.15   340.65
          (Kelvin)            359.76   390.36   446.46   485.45   509.34
                              594.03   653.21   674.26   790.76   930.10
                             1002.07  1125.89  1161.66  1228.46  1293.54
                             1350.86  1454.85  1488.32  1500.64  1516.01
                             1544.66  1690.43  1760.90  1805.55  1869.84
                             1911.74  1922.60  2017.89  2096.00  2113.98
                             2161.67  2206.50  2250.67  2277.41  2290.26
                             2334.75  2345.87  2358.34  2372.92  2381.56
                             2431.56  2932.02  4537.62  4597.36  4623.68
                             4654.05  4682.40  4703.07  4718.05  4737.95
                             4742.61  4747.39  5201.14  5440.59  5753.15

 Zero-point correction=                           0.205903 (Hartree/Particle)
 Thermal correction to Energy=                    0.216202
 Thermal correction to Enthalpy=                  0.217146
 Thermal correction to Gibbs Free Energy=         0.169192
 Sum of electronic and zero-point Energies=           -438.491386
 Sum of electronic and thermal Energies=              -438.481087
 Sum of electronic and thermal Enthalpies=            -438.480143
 Sum of electronic and thermal Free Energies=         -438.528098

                     E (Thermal)             CV                S
                      KCal/Mol        Cal/Mol-Kelvin    Cal/Mol-Kelvin
 Total                  135.669             37.241            100.928
 Electronic               0.000              0.000              1.377
 Translational            0.889              2.981             40.525
 Rotational               0.889              2.981             29.526
 Vibrational            133.891             31.280             29.500
 Vibration  1             0.595              1.980              5.129
 Vibration  2             0.597              1.971              4.280
 Vibration  3             0.607              1.938              3.212
 Vibration  4             0.616              1.910              2.760
 Vibration  5             0.656              1.784              1.827
 Vibration  6             0.663              1.763              1.730
 Vibration  7             0.675              1.726              1.588
 Vibration  8             0.699              1.654              1.361
 Vibration  9             0.718              1.601              1.224
 Vibration 10             0.730              1.567              1.148
 Vibration 11             0.777              1.442              0.917
 Vibration 12             0.812              1.352              0.784
 Vibration 13             0.826              1.320              0.741
 Vibration 14             0.905              1.141              0.545

 Optimization completed.
    -- Stationary point found.
 Normal termination of Gaussian 03 at Sat Jun 26 16:11:13 2010.

 ------------------------------------------------------------------
 #N Geom=AllCheck Guess=Read SCRF=Check MP2(Full)/6-31G(d) Opt=RCFC
 ------------------------------------------------------------------

 leucine 1b1
 -----------
 Redundant internal coordinates taken from checkpoint file:
 leucine-1b1-G3MP2.chk
 Charge =  1 Multiplicity = 2

 SCF Done:  E(UHF) =  -438.697289194     A.U. after    1 cycles
 E2 =    -0.1296644507D+01 EUMP2 =    -0.43999393370089D+03
 SCF Done:  E(UHF) =  -438.692749893     A.U. after   17 cycles
 E2 =    -0.1306434742D+01 EUMP2 =    -0.43999918463565D+03
 SCF Done:  E(UHF) =  -438.691366837     A.U. after   17 cycles
 E2 =    -0.1307991161D+01 EUMP2 =    -0.43999935799810D+03
 SCF Done:  E(UHF) =  -438.691154113     A.U. after   16 cycles
 E2 =    -0.1308223057D+01 EUMP2 =    -0.43999937717064D+03
 SCF Done:  E(UHF) =  -438.691170621     A.U. after   16 cycles
 E2 =    -0.1308210871D+01 EUMP2 =    -0.43999938149138D+03
 SCF Done:  E(UHF) =  -438.691232210     A.U. after    9 cycles
 E2 =    -0.1308149576D+01 EUMP2 =    -0.43999938178596D+03
 Optimization completed.
    -- Stationary point found.
 Normal termination of Gaussian 03 at Sat Jun 26 17:18:58 2010.

 --------------------------------------------------------
 #N Geom=AllCheck Guess=Read SCRF=Check QCISD(T)/6-31G(d)
 --------------------------------------------------------

 leucine 1b1
 -----------
 Redundant internal coordinates taken from checkpoint file:
 leucine-1b1-G3MP2.chk
 Charge =  1 Multiplicity = 2

 SCF Done:  E(UHF) =  -438.691232210     A.U. after    1 cycles
 Normal termination of Gaussian 03 at Mon Jun 28 02:51:32 2010.

 -----------------------------------------------------
 #N Geom=AllCheck Guess=Read SCRF=Check MP2/GTMP2Large
 -----------------------------------------------------

 leucine 1b1
 -----------
 Redundant internal coordinates taken from checkpoint file:
 leucine-1b1-G3MP2.chk
 Charge =  1 Multiplicity = 2

                         Standard orientation:
 ---------------------------------------------------------------------
 Center     Atomic     Atomic              Coordinates (Angstroms)
 Number     Number      Type              X           Y           Z
 ---------------------------------------------------------------------
    1          6             0        2.004596   -0.237077    0.048116
    2          8             0        2.813210    0.316381   -0.675487
    3          8             0        2.133516   -1.406115    0.663990
    4          6             0        0.636276    0.370189    0.327459
    5          7             0        0.679568    1.688327   -0.194765
    6          1             0       -0.071589    2.365582   -0.041933
    7          1             0        1.490560    1.935217   -0.785281
    8          6             0       -0.510397   -0.445902   -0.370605
    9          6             0       -1.910122    0.150887   -0.220557
   10          6             0       -2.286894    0.395818    1.238659
   11          1             0       -0.241433   -0.564774   -1.425732
   12          1             0       -3.320010    0.743905    1.307822
   13          1             0       -2.209380   -0.530432    1.817172
   14          1             0       -1.666180    1.154200    1.729977
   15          1             0       -0.461168   -1.433116    0.101747
   16          6             0       -2.906020   -0.798937   -0.886090
   17          1             0       -2.926726   -1.760358   -0.364161
   18          1             0       -2.650543   -0.981136   -1.933432
   19          1             0       -3.912699   -0.376086   -0.853489
   20          1             0       -1.953553    1.103853   -0.768538
   21          1             0        0.411242    0.416563    1.400877
   22          1             0        3.016056   -1.783694    0.448410
 ---------------------------------------------------------------------

 SCF Done:  E(UHF) =  -438.846562336     A.U. after   18 cycles
 E2 =    -0.1640351314D+01 EUMP2 =    -0.44048691364966D+03

 The electronic state is 2-A.
 Alpha  occ. eigenvalues --  -20.79032 -20.73456 -15.92835 -11.57656 -11.49603
 Alpha  occ. eigenvalues --  -11.41726 -11.38799 -11.35866 -11.34348  -1.64542
 Alpha  occ. eigenvalues --   -1.55926  -1.53070  -1.27301  -1.20537  -1.09109
 Alpha  occ. eigenvalues --   -1.07229  -1.02544  -1.01152  -0.93590  -0.91859
 Alpha  occ. eigenvalues --   -0.88176  -0.87068  -0.84035  -0.80685  -0.79159
 Alpha  occ. eigenvalues --   -0.76169  -0.74224  -0.71720  -0.70205  -0.67710
 Alpha  occ. eigenvalues --   -0.66400  -0.65920  -0.65150  -0.62032  -0.61937
 Alpha  occ. eigenvalues --   -0.61273
 Alpha virt. eigenvalues --   -0.09650  -0.06666  -0.06122  -0.05201  -0.03909
 Alpha virt. eigenvalues --   -0.03362  -0.02794  -0.02432  -0.02256  -0.01651
 Alpha virt. eigenvalues --   -0.00058   0.00504   0.00843   0.01226   0.01861

  Beta  occ. eigenvalues --  -20.79013 -20.73536 -15.89272 -11.57604 -11.49870
  Beta  occ. eigenvalues --  -11.41456 -11.38815 -11.35862 -11.34344  -1.64443
  Beta  occ. eigenvalues --   -1.54812  -1.44500  -1.25794  -1.19280  -1.08468
  Beta  occ. eigenvalues --   -1.07026  -1.01529  -0.99276  -0.93310  -0.89305
  Beta  occ. eigenvalues --   -0.86529  -0.85292  -0.81223  -0.79202  -0.76114
  Beta  occ. eigenvalues --   -0.74441  -0.73493  -0.70373  -0.67776  -0.66700
  Beta  occ. eigenvalues --   -0.66025  -0.65238  -0.62048  -0.61893  -0.61473
  Beta virt. eigenvalues --   -0.18200  -0.09301  -0.06548  -0.05901  -0.04941
  Beta virt. eigenvalues --   -0.03869  -0.03285  -0.02738  -0.02405  -0.01875
  Beta virt. eigenvalues --   -0.01384  -0.00039   0.00563   0.00883   0.01311

 Mulliken atomic charges:
              1
     1  C    0.332797
     2  O   -0.414941
     3  O   -0.291016
     4  C   -0.388061
     5  N    0.219681
     6  H    0.301516
     7  H    0.293873
     8  C   -0.405502
     9  C    0.873269
    10  C   -0.487122
    11  H    0.148431
    12  H    0.116217
    13  H    0.111949
    14  H    0.026582
    15  H    0.149680
    16  C   -0.416362
    17  H    0.076839
    18  H    0.069665
    19  H    0.114111
    20  H    0.032359
    21  H    0.186215
    22  H    0.349821
 Sum of Mulliken charges=   1.00000

 Dipole moment (field-independent basis, Debye):
    X=     0.5347    Y=     3.6148    Z=     0.4744  Tot=     3.6848
 Quadrupole moment (field-independent basis, Debye-Ang):
   XX=   -42.5049   YY=   -36.8514   ZZ=   -52.3315
   XY=    -3.2574   XZ=     2.9658   YZ=    -0.8296

 Normal termination of Gaussian 03 at Mon Jun 28 05:14:22 2010.
