 Gaussian 03, Revision C.02,
 Gaussian 03:  AM64L-G03RevC.02 12-Jun-2004

 --------------------------------
 # G3MP2(restart) geom=checkpoint
 --------------------------------

 Normal termination of Gaussian 03 at Fri Nov 30 13:30:22 2007.

 -----------------------------------------------------
 #N Geom=AllCheck Guess=Read SCRF=Check MP2/GTMP2Large
 -----------------------------------------------------

 isoleucine 2a1
 --------------
 Redundant internal coordinates taken from checkpoint file:
 iso-2a1-G3MP2.chk
 Charge =  0 Multiplicity = 1

                         Standard orientation:
 ---------------------------------------------------------------------
 Center     Atomic     Atomic              Coordinates (Angstroms)
 Number     Number      Type              X           Y           Z
 ---------------------------------------------------------------------
    1          6             0        1.578763   -0.544359    0.275260
    2          8             0        1.386349   -1.568169    0.903701
    3          8             0        2.659835   -0.353018   -0.501317
    4          6             0        0.634498    0.665658    0.338626
    5          7             0        0.937746    1.557105   -0.791891
    6          1             0        0.387537    1.294799   -1.608730
    7          1             0        0.702378    2.521604   -0.570069
    8          6             0       -0.825736    0.223214    0.494642
    9          6             0       -1.716581    1.425524    0.795099
   10          1             0       -0.835964   -0.453503    1.357348
   11          1             0        0.928170    1.206413    1.249400
   12          1             0        2.523955    0.549368   -0.892035
   13          6             0       -1.310584   -0.575105   -0.719099
   14          1             0       -1.377646    0.082955   -1.596770
   15          6             0       -2.663986   -1.247417   -0.505340
   16          1             0       -0.571503   -1.349221   -0.952811
   17          1             0       -3.465626   -0.518696   -0.363939
   18          1             0       -2.634001   -1.896358    0.374632
   19          1             0       -2.928480   -1.865245   -1.367789
   20          1             0       -1.765820    2.103398   -0.064073
   21          1             0       -1.337441    1.991124    1.652776
   22          1             0       -2.737505    1.118030    1.031108
 ---------------------------------------------------------------------

 SCF Done:  E(RHF) =  -439.117228203     A.U. after    1 cycles
 E2 =    -0.1699529247D+01 EUMP2 =    -0.44081675745044D+03

 The electronic state is 1-A.
 Alpha  occ. eigenvalues --  -20.59607 -20.53413 -15.58310 -11.37533 -11.28871
 Alpha  occ. eigenvalues --  -11.23969 -11.22902 -11.22773 -11.21814  -1.44513
 Alpha  occ. eigenvalues --   -1.34817  -1.22540  -1.09747  -1.00519  -0.96105
 Alpha  occ. eigenvalues --   -0.87947  -0.81191  -0.77987  -0.73554  -0.69258
 Alpha  occ. eigenvalues --   -0.66689  -0.64089  -0.62790  -0.61545  -0.59568
 Alpha  occ. eigenvalues --   -0.59059  -0.56038  -0.54536  -0.53310  -0.51530
 Alpha  occ. eigenvalues --   -0.49771  -0.47860  -0.47388  -0.46239  -0.45155
 Alpha  occ. eigenvalues --   -0.41799
 Alpha virt. eigenvalues --    0.03053   0.04542   0.04685   0.05623   0.06922
 Alpha virt. eigenvalues --    0.07096   0.07741   0.07930   0.08902   0.10078
 Alpha virt. eigenvalues --    0.10415   0.11137   0.11415   0.13551   0.13936

 Mulliken atomic charges:
              1
     1  C   -0.010053
     2  O   -0.432058
     3  O   -0.332098
     4  C    0.123532
     5  N   -0.277617
     6  H    0.185622
     7  H    0.214392
     8  C    0.541878
     9  C   -0.486718
    10  H    0.126256
    11  H    0.079444
    12  H    0.313568
    13  C   -0.104319
    14  H    0.026195
    15  C   -0.486127
    16  H    0.099414
    17  H    0.063744
    18  H    0.076408
    19  H    0.069833
    20  H    0.065420
    21  H    0.063314
    22  H    0.079970
 Sum of Mulliken charges=   0.00000

 Dipole moment (field-independent basis, Debye):
    X=    -2.9050    Y=     4.6425    Z=    -1.3704  Tot=     5.6454
 Quadrupole moment (field-independent basis, Debye-Ang):
   XX=   -63.6840   YY=   -58.5349   ZZ=   -55.6933
   XY=     6.8840   XZ=    -0.7686   YZ=     2.3181

 Normal termination of Gaussian 03 at Fri Nov 30 15:14:37 2007.
